! AWR Design Environment Mon Mar 14 14:57:18 2016
! Document = 'BAW_resonator_1872'
! nPorts: 2, nXvals: 401

# HZ S RI R 50
!Freq ReS11 ImS11 ReS21 ImS21 ReS12 ImS12 ReS22 ImS22 
1.6e+009 0.37842325 -0.48237279 0.62157675 0.48237278 0.62157675 0.48237278 0.37842325 -0.48237278 
1.601e+009 0.37785387 -0.48222481 0.62214613 0.4822248 0.62214613 0.4822248 0.37785387 -0.4822248 
1.602e+009 0.37728311 -0.48207573 0.62271688 0.48207573 0.62271688 0.48207573 0.37728311 -0.48207573 
1.603e+009 0.37671098 -0.48192556 0.62328901 0.48192556 0.62328901 0.48192556 0.37671098 -0.48192555 
1.604e+009 0.37613746 -0.48177428 0.62386254 0.48177427 0.62386254 0.48177427 0.37613745 -0.48177427 
1.605e+009 0.37556252 -0.48162187 0.62443748 0.48162187 0.62443748 0.48162187 0.37556251 -0.48162187 
1.606e+009 0.37498615 -0.48146833 0.62501385 0.48146833 0.62501385 0.48146833 0.37498615 -0.48146833 
1.607e+009 0.37440834 -0.48131366 0.62559166 0.48131366 0.62559166 0.48131366 0.37440834 -0.48131366 
1.608e+009 0.37382907 -0.48115783 0.62617092 0.48115783 0.62617092 0.48115783 0.37382907 -0.48115783 
1.609e+009 0.37324833 -0.48100084 0.62675167 0.48100084 0.62675167 0.48100084 0.37324833 -0.48100084 
1.61e+009 0.37266609 -0.48084267 0.6273339 0.48084267 0.6273339 0.48084267 0.37266609 -0.48084267 
1.611e+009 0.37208235 -0.48068332 0.62791765 0.48068332 0.62791765 0.48068332 0.37208235 -0.48068332 
1.612e+009 0.37149709 -0.48052277 0.62850291 0.48052277 0.62850291 0.48052277 0.37149708 -0.48052276 
1.613e+009 0.37091028 -0.48036101 0.62908972 0.48036101 0.62908972 0.48036101 0.37091027 -0.480361 
1.614e+009 0.3703219 -0.48019802 0.62967809 0.48019802 0.62967809 0.48019802 0.3703219 -0.48019802 
1.615e+009 0.36973196 -0.48003381 0.63026804 0.48003381 0.63026804 0.48003381 0.36973196 -0.48003381 
1.616e+009 0.36914042 -0.47986835 0.63085958 0.47986835 0.63085958 0.47986835 0.36914042 -0.47986835 
1.617e+009 0.36854727 -0.47970163 0.63145273 0.47970163 0.63145273 0.47970163 0.36854727 -0.47970163 
1.618e+009 0.36795249 -0.47953364 0.63204751 0.47953364 0.63204751 0.47953364 0.36795249 -0.47953364 
1.619e+009 0.36735606 -0.47936437 0.63264394 0.47936437 0.63264394 0.47936437 0.36735606 -0.47936437 
1.62e+009 0.36675796 -0.4791938 0.63324204 0.4791938 0.63324204 0.4791938 0.36675796 -0.4791938 
1.621e+009 0.36615818 -0.47902192 0.63384182 0.47902192 0.63384182 0.47902192 0.36615817 -0.47902192 
1.622e+009 0.36555669 -0.47884872 0.63444331 0.47884872 0.63444331 0.47884872 0.36555668 -0.47884871 
1.623e+009 0.36495348 -0.47867418 0.63504653 0.47867418 0.63504653 0.47867418 0.36495347 -0.47867417 
1.624e+009 0.36434851 -0.47849828 0.63565148 0.47849828 0.63565148 0.47849828 0.36434851 -0.47849828 
1.625e+009 0.3637418 -0.47832103 0.63625821 0.47832103 0.63625821 0.47832103 0.36374179 -0.47832102 
1.626e+009 0.36313328 -0.47814239 0.63686671 0.47814239 0.63686671 0.47814239 0.36313328 -0.47814239 
1.627e+009 0.36252298 -0.47796236 0.63747702 0.47796236 0.63747702 0.47796236 0.36252297 -0.47796235 
1.628e+009 0.36191084 -0.47778092 0.63808916 0.47778092 0.63808916 0.47778092 0.36191084 -0.47778092 
1.629e+009 0.36129686 -0.47759805 0.63870314 0.47759805 0.63870314 0.47759805 0.36129686 -0.47759805 
1.63e+009 0.36068101 -0.47741375 0.63931899 0.47741374 0.63931899 0.47741374 0.36068101 -0.47741374 
1.631e+009 0.36006327 -0.47722798 0.63993673 0.47722798 0.63993673 0.47722798 0.36006327 -0.47722798 
1.632e+009 0.35944362 -0.47704075 0.64055638 0.47704075 0.64055638 0.47704075 0.35944362 -0.47704075 
1.633e+009 0.35882204 -0.47685203 0.64117796 0.47685203 0.64117796 0.47685203 0.35882204 -0.47685203 
1.634e+009 0.3581985 -0.4766618 0.6418015 0.4766618 0.6418015 0.4766618 0.3581985 -0.4766618 
1.635e+009 0.35757299 -0.47647005 0.64242701 0.47647005 0.64242701 0.47647005 0.35757298 -0.47647005 
1.636e+009 0.35694547 -0.47627676 0.64305453 0.47627676 0.64305453 0.47627676 0.35694547 -0.47627676 
1.637e+009 0.35631593 -0.47608192 0.64368406 0.47608192 0.64368406 0.47608192 0.35631593 -0.47608192 
1.638e+009 0.35568435 -0.47588551 0.64431565 0.47588551 0.64431565 0.47588551 0.35568434 -0.4758855 
1.639e+009 0.35505069 -0.4756875 0.64494931 0.4756875 0.64494931 0.4756875 0.35505068 -0.4756875 
1.64e+009 0.35441493 -0.47548789 0.64558507 0.47548788 0.64558507 0.47548788 0.35441493 -0.47548788 
1.641e+009 0.35377706 -0.47528664 0.64622294 0.47528664 0.64622294 0.47528664 0.35377706 -0.47528663 
1.642e+009 0.35313704 -0.47508375 0.64686296 0.47508375 0.64686296 0.47508375 0.35313704 -0.47508375 
1.643e+009 0.35249485 -0.47487919 0.64750515 0.47487919 0.64750515 0.47487919 0.35249485 -0.47487918 
1.644e+009 0.35185046 -0.47467294 0.64814954 0.47467294 0.64814954 0.47467294 0.35185046 -0.47467294 
1.645e+009 0.35120385 -0.47446499 0.64879615 0.47446499 0.64879615 0.47446499 0.35120385 -0.47446499 
1.646e+009 0.350555 -0.47425532 0.649445 0.47425532 0.649445 0.47425532 0.35055499 -0.47425531 
1.647e+009 0.34990386 -0.47404389 0.65009614 0.47404389 0.65009614 0.47404389 0.34990386 -0.47404389 
1.648e+009 0.34925043 -0.4738307 0.65074957 0.4738307 0.65074957 0.4738307 0.34925042 -0.4738307 
1.649e+009 0.34859466 -0.47361572 0.65140534 0.47361572 0.65140534 0.47361572 0.34859466 -0.47361572 
1.65e+009 0.34793654 -0.47339893 0.65206346 0.47339893 0.65206346 0.47339893 0.34793654 -0.47339893 
1.651e+009 0.34727603 -0.47318031 0.65272397 0.47318031 0.65272397 0.47318031 0.34727603 -0.4731803 
1.652e+009 0.34661311 -0.47295983 0.65338689 0.47295983 0.65338689 0.47295983 0.3466131 -0.47295982 
1.653e+009 0.34594774 -0.47273747 0.65405226 0.47273747 0.65405226 0.47273747 0.34594774 -0.47273746 
1.654e+009 0.3452799 -0.47251321 0.6547201 0.47251321 0.6547201 0.47251321 0.3452799 -0.4725132 
1.655e+009 0.34460955 -0.47228702 0.65539044 0.47228702 0.65539044 0.47228702 0.34460955 -0.47228702 
1.656e+009 0.34393668 -0.47205888 0.65606332 0.47205888 0.65606332 0.47205888 0.34393668 -0.47205888 
1.657e+009 0.34326124 -0.47182877 0.65673876 0.47182877 0.65673876 0.47182877 0.34326123 -0.47182877 
1.658e+009 0.3425832 -0.47159666 0.6574168 0.47159666 0.6574168 0.47159666 0.3425832 -0.47159666 
1.659e+009 0.34190254 -0.47136252 0.65809746 0.47136252 0.65809746 0.47136252 0.34190254 -0.47136252 
1.66e+009 0.34121921 -0.47112633 0.65878078 0.47112633 0.65878078 0.47112633 0.34121921 -0.47112633 
1.661e+009 0.3405332 -0.47088807 0.6594668 0.47088807 0.6594668 0.47088807 0.34053319 -0.47088806 
1.662e+009 0.33984446 -0.4706477 0.66015554 0.4706477 0.66015554 0.4706477 0.33984446 -0.4706477 
1.663e+009 0.33915296 -0.47040519 0.66084704 0.47040519 0.66084704 0.47040519 0.33915296 -0.47040519 
1.664e+009 0.33845866 -0.47016053 0.66154133 0.47016053 0.66154133 0.47016053 0.33845866 -0.47016053 
1.665e+009 0.33776155 -0.46991367 0.66223845 0.46991367 0.66223845 0.46991367 0.33776154 -0.46991367 
1.666e+009 0.33706156 -0.4696646 0.66293843 0.4696646 0.66293843 0.4696646 0.33706156 -0.46966459 
1.667e+009 0.33635868 -0.46941328 0.66364132 0.46941327 0.66364132 0.46941327 0.33635868 -0.46941327 
1.668e+009 0.33565287 -0.46915968 0.66434713 0.46915967 0.66434713 0.46915967 0.33565286 -0.46915967 
1.669e+009 0.33494408 -0.46890376 0.66505592 0.46890376 0.66505592 0.46890376 0.33494408 -0.46890376 
1.67e+009 0.33423229 -0.46864551 0.66576771 0.46864551 0.66576771 0.46864551 0.33423229 -0.46864551 
1.671e+009 0.33351745 -0.46838489 0.66648255 0.46838489 0.66648255 0.46838489 0.33351744 -0.46838488 
1.672e+009 0.33279952 -0.46812186 0.66720048 0.46812186 0.66720048 0.46812186 0.33279952 -0.46812186 
1.673e+009 0.33207847 -0.46785639 0.66792153 0.46785639 0.66792153 0.46785639 0.33207847 -0.46785638 
1.674e+009 0.33135426 -0.46758844 0.66864574 0.46758844 0.66864574 0.46758844 0.33135426 -0.46758844 
1.675e+009 0.33062684 -0.467318 0.66937316 0.46731799 0.66937316 0.46731799 0.33062684 -0.46731799 
1.676e+009 0.32989618 -0.467045 0.67010382 0.467045 0.67010382 0.467045 0.32989618 -0.467045 
1.677e+009 0.32916223 -0.46676943 0.67083776 0.46676943 0.67083776 0.46676943 0.32916223 -0.46676943 
1.678e+009 0.32842496 -0.46649124 0.67157504 0.46649124 0.67157504 0.46649124 0.32842496 -0.46649123 
1.679e+009 0.32768431 -0.46621039 0.67231568 0.46621039 0.67231568 0.46621039 0.32768431 -0.46621039 
1.68e+009 0.32694025 -0.46592686 0.67305974 0.46592686 0.67305974 0.46592686 0.32694025 -0.46592686 
1.681e+009 0.32619274 -0.4656406 0.67380726 0.46564059 0.67380726 0.46564059 0.32619274 -0.46564059 
1.682e+009 0.32544172 -0.46535156 0.67455828 0.46535156 0.67455828 0.46535156 0.32544171 -0.46535155 
1.683e+009 0.32468715 -0.46505971 0.67531285 0.46505971 0.67531285 0.46505971 0.32468715 -0.46505971 
1.684e+009 0.32392898 -0.46476501 0.67607102 0.46476501 0.67607102 0.46476501 0.32392898 -0.46476501 
1.685e+009 0.32316718 -0.46446741 0.67683282 0.46446741 0.67683282 0.46446741 0.32316717 -0.46446741 
1.686e+009 0.32240168 -0.46416688 0.67759832 0.46416688 0.67759832 0.46416688 0.32240168 -0.46416687 
1.687e+009 0.32163245 -0.46386336 0.67836755 0.46386336 0.67836755 0.46386336 0.32163245 -0.46386336 
1.688e+009 0.32085942 -0.46355682 0.67914057 0.46355682 0.67914057 0.46355682 0.32085942 -0.46355682 
1.689e+009 0.32008257 -0.4632472 0.67991743 0.4632472 0.67991743 0.4632472 0.32008257 -0.4632472 
1.69e+009 0.31930182 -0.46293447 0.68069818 0.46293446 0.68069818 0.46293446 0.31930182 -0.46293446 
1.691e+009 0.31851713 -0.46261856 0.68148287 0.46261856 0.68148287 0.46261856 0.31851713 -0.46261855 
1.692e+009 0.31772845 -0.46229943 0.68227155 0.46229943 0.68227155 0.46229943 0.31772845 -0.46229943 
1.693e+009 0.31693573 -0.46197704 0.68306427 0.46197704 0.68306427 0.46197704 0.31693573 -0.46197704 
1.694e+009 0.3161389 -0.46165134 0.6838611 0.46165134 0.6838611 0.46165134 0.3161389 -0.46165134 
1.695e+009 0.31533792 -0.46132226 0.68466208 0.46132226 0.68466208 0.46132226 0.31533792 -0.46132226 
1.696e+009 0.31453273 -0.46098976 0.68546727 0.46098976 0.68546727 0.46098976 0.31453272 -0.46098975 
1.697e+009 0.31372326 -0.46065378 0.68627673 0.46065378 0.68627673 0.46065378 0.31372326 -0.46065378 
1.698e+009 0.31290948 -0.46031427 0.68709052 0.46031427 0.68709052 0.46031427 0.31290948 -0.46031427 
1.699e+009 0.3120913 -0.45997116 0.68790869 0.45997116 0.68790869 0.45997116 0.3120913 -0.45997116 
1.7e+009 0.31126869 -0.45962441 0.68873131 0.45962441 0.68873131 0.45962441 0.31126868 -0.45962441 
1.701e+009 0.31044156 -0.45927396 0.68955843 0.45927395 0.68955843 0.45927395 0.31044156 -0.45927395 
1.702e+009 0.30960987 -0.45891973 0.69039013 0.45891973 0.69039013 0.45891973 0.30960987 -0.45891973 
1.703e+009 0.30877355 -0.45856167 0.69122645 0.45856167 0.69122645 0.45856167 0.30877355 -0.45856167 
1.704e+009 0.30793253 -0.45819972 0.69206747 0.45819972 0.69206747 0.45819972 0.30793253 -0.45819972 
1.705e+009 0.30708675 -0.45783382 0.69291324 0.45783382 0.69291324 0.45783382 0.30708675 -0.45783381 
1.706e+009 0.30623615 -0.45746389 0.69376385 0.45746389 0.69376385 0.45746389 0.30623615 -0.45746389 
1.707e+009 0.30538065 -0.45708986 0.69461935 0.45708986 0.69461935 0.45708986 0.30538065 -0.45708986 
1.708e+009 0.30452019 -0.45671168 0.69547981 0.45671168 0.69547981 0.45671168 0.30452019 -0.45671168 
1.709e+009 0.3036547 -0.45632926 0.6963453 0.45632926 0.6963453 0.45632926 0.30365469 -0.45632926 
1.71e+009 0.3027841 -0.45594254 0.6972159 0.45594254 0.6972159 0.45594254 0.3027841 -0.45594254 
1.711e+009 0.30190833 -0.45555144 0.69809166 0.45555144 0.69809166 0.45555144 0.30190833 -0.45555144 
1.712e+009 0.30102731 -0.45515589 0.69897268 0.45515589 0.69897268 0.45515589 0.30102731 -0.45515589 
1.713e+009 0.30014097 -0.4547558 0.69985902 0.4547558 0.69985902 0.4547558 0.30014097 -0.4547558 
1.714e+009 0.29924924 -0.45435111 0.70075076 0.45435111 0.70075076 0.45435111 0.29924923 -0.4543511 
1.715e+009 0.29835202 -0.45394172 0.70164798 0.45394172 0.70164798 0.45394172 0.29835202 -0.45394172 
1.716e+009 0.29744925 -0.45352755 0.70255075 0.45352755 0.70255075 0.45352755 0.29744925 -0.45352755 
1.717e+009 0.29654084 -0.45310853 0.70345915 0.45310852 0.70345915 0.45310852 0.29654084 -0.45310852 
1.718e+009 0.29562672 -0.45268455 0.70437327 0.45268455 0.70437327 0.45268455 0.29562672 -0.45268454 
1.719e+009 0.2947068 -0.45225554 0.7052932 0.45225553 0.7052932 0.45225553 0.2947068 -0.45225553 
1.72e+009 0.293781 -0.45182139 0.706219 0.45182139 0.706219 0.45182139 0.293781 -0.45182139 
1.721e+009 0.29284922 -0.45138203 0.70715077 0.45138203 0.70715077 0.45138203 0.29284922 -0.45138203 
1.722e+009 0.29191139 -0.45093734 0.7080886 0.45093734 0.7080886 0.45093734 0.29191139 -0.45093734 
1.723e+009 0.29096742 -0.45048724 0.70903258 0.45048724 0.70903258 0.45048724 0.29096742 -0.45048724 
1.724e+009 0.29001721 -0.45003162 0.70998279 0.45003162 0.70998279 0.45003162 0.29001721 -0.45003162 
1.725e+009 0.28906067 -0.44957038 0.71093933 0.44957038 0.71093933 0.44957038 0.28906066 -0.44957038 
1.726e+009 0.2880977 -0.44910341 0.71190229 0.44910341 0.71190229 0.44910341 0.2880977 -0.44910341 
1.727e+009 0.28712822 -0.44863061 0.71287177 0.44863061 0.71287177 0.44863061 0.28712822 -0.44863061 
1.728e+009 0.28615213 -0.44815186 0.71384787 0.44815186 0.71384787 0.44815186 0.28615212 -0.44815186 
1.729e+009 0.28516932 -0.44766705 0.71483068 0.44766705 0.71483068 0.44766705 0.28516931 -0.44766705 
1.73e+009 0.28417969 -0.44717606 0.71582031 0.44717606 0.71582031 0.44717606 0.28417969 -0.44717606 
1.731e+009 0.28318314 -0.44667878 0.71681685 0.44667878 0.71681685 0.44667878 0.28318314 -0.44667878 
1.732e+009 0.28217958 -0.44617507 0.71782042 0.44617507 0.71782042 0.44617507 0.28217958 -0.44617507 
1.733e+009 0.28116888 -0.44566482 0.71883112 0.44566482 0.71883112 0.44566482 0.28116888 -0.44566482 
1.734e+009 0.28015095 -0.4451479 0.71984905 0.44514789 0.71984905 0.44514789 0.28015095 -0.44514789 
1.735e+009 0.27912566 -0.44462416 0.72087433 0.44462416 0.72087433 0.44462416 0.27912566 -0.44462416 
1.736e+009 0.27809292 -0.44409348 0.72190708 0.44409348 0.72190708 0.44409348 0.27809292 -0.44409347 
1.737e+009 0.2770526 -0.44355571 0.7229474 0.44355571 0.7229474 0.44355571 0.2770526 -0.44355571 
1.738e+009 0.27600458 -0.44301072 0.72399541 0.44301072 0.72399541 0.44301072 0.27600458 -0.44301072 
1.739e+009 0.27494876 -0.44245835 0.72505124 0.44245835 0.72505124 0.44245835 0.27494876 -0.44245835 
1.74e+009 0.273885 -0.44189845 0.726115 0.44189845 0.726115 0.44189845 0.273885 -0.44189845 
1.741e+009 0.27281318 -0.44133088 0.72718681 0.44133088 0.72718681 0.44133088 0.27281318 -0.44133088 
1.742e+009 0.27173318 -0.44075546 0.72826682 0.44075546 0.72826682 0.44075546 0.27173318 -0.44075546 
1.743e+009 0.27064487 -0.44017203 0.72935513 0.44017203 0.72935513 0.44017203 0.27064487 -0.44017203 
1.744e+009 0.26954812 -0.43958044 0.73045188 0.43958044 0.73045188 0.43958044 0.26954812 -0.43958043 
1.745e+009 0.26844279 -0.43898049 0.73155721 0.43898049 0.73155721 0.43898049 0.26844279 -0.43898049 
1.746e+009 0.26732875 -0.43837203 0.73267125 0.43837202 0.73267125 0.43837202 0.26732875 -0.43837202 
1.747e+009 0.26620586 -0.43775485 0.73379414 0.43775485 0.73379414 0.43775485 0.26620586 -0.43775485 
1.748e+009 0.26507398 -0.43712878 0.73492602 0.43712878 0.73492602 0.43712878 0.26507398 -0.43712878 
1.749e+009 0.26393296 -0.43649362 0.73606704 0.43649362 0.73606704 0.43649362 0.26393296 -0.43649362 
1.75e+009 0.26278266 -0.43584917 0.73721733 0.43584917 0.73721733 0.43584917 0.26278266 -0.43584917 
1.751e+009 0.26162294 -0.43519523 0.73837706 0.43519523 0.73837706 0.43519523 0.26162294 -0.43519523 
1.752e+009 0.26045363 -0.43453159 0.73954637 0.43453159 0.73954637 0.43453159 0.26045363 -0.43453159 
1.753e+009 0.25927458 -0.43385804 0.74072542 0.43385803 0.74072542 0.43385803 0.25927458 -0.43385803 
1.754e+009 0.25808564 -0.43317434 0.74191436 0.43317434 0.74191436 0.43317434 0.25808564 -0.43317433 
1.755e+009 0.25688664 -0.43248027 0.74311336 0.43248027 0.74311336 0.43248027 0.25688664 -0.43248027 
1.756e+009 0.25567742 -0.4317756 0.74432258 0.4317756 0.74432258 0.4317756 0.25567741 -0.43177559 
1.757e+009 0.25445781 -0.43106008 0.74554219 0.43106008 0.74554219 0.43106008 0.25445781 -0.43106007 
1.758e+009 0.25322764 -0.43033346 0.74677236 0.43033346 0.74677236 0.43033346 0.25322764 -0.43033346 
1.759e+009 0.25198674 -0.42959549 0.74801326 0.42959549 0.74801326 0.42959549 0.25198674 -0.42959549 
1.76e+009 0.25073493 -0.4288459 0.74926507 0.4288459 0.74926507 0.4288459 0.25073492 -0.4288459 
1.761e+009 0.24947202 -0.42808441 0.75052797 0.42808441 0.75052797 0.42808441 0.24947202 -0.42808441 
1.762e+009 0.24819785 -0.42731076 0.75180215 0.42731076 0.75180215 0.42731076 0.24819784 -0.42731075 
1.763e+009 0.2469122 -0.42652464 0.75308779 0.42652463 0.75308779 0.42652463 0.2469122 -0.42652463 
1.764e+009 0.24561491 -0.42572575 0.75438509 0.42572575 0.75438509 0.42572575 0.24561491 -0.42572575 
1.765e+009 0.24430576 -0.4249138 0.75569423 0.42491379 0.75569423 0.42491379 0.24430576 -0.42491379 
1.766e+009 0.24298457 -0.42408845 0.75701543 0.42408845 0.75701543 0.42408845 0.24298457 -0.42408845 
1.767e+009 0.24165113 -0.42324939 0.75834887 0.42324939 0.75834887 0.42324939 0.24165113 -0.42324939 
1.768e+009 0.24030522 -0.42239627 0.75969477 0.42239627 0.75969477 0.42239627 0.24030522 -0.42239627 
1.769e+009 0.23894666 -0.42152876 0.76105334 0.42152876 0.76105334 0.42152876 0.23894666 -0.42152875 
1.77e+009 0.23757521 -0.42064647 0.76242479 0.42064647 0.76242479 0.42064647 0.23757521 -0.42064647 
1.771e+009 0.23619066 -0.41974906 0.76380934 0.41974906 0.76380934 0.41974906 0.23619066 -0.41974906 
1.772e+009 0.23479278 -0.41883613 0.76520721 0.41883612 0.76520721 0.41883612 0.23479278 -0.41883612 
1.773e+009 0.23338136 -0.41790728 0.76661864 0.41790728 0.76661864 0.41790728 0.23338136 -0.41790728 
1.774e+009 0.23195616 -0.41696211 0.76804384 0.4169621 0.76804384 0.4169621 0.23195616 -0.4169621 
1.775e+009 0.23051694 -0.41600019 0.76948306 0.41600019 0.76948306 0.41600019 0.23051693 -0.41600018 
1.776e+009 0.22906346 -0.41502109 0.77093654 0.41502109 0.77093654 0.41502109 0.22906346 -0.41502109 
1.777e+009 0.22759549 -0.41402436 0.77240451 0.41402436 0.77240451 0.41402436 0.22759548 -0.41402435 
1.778e+009 0.22611276 -0.41300953 0.77388724 0.41300953 0.77388724 0.41300953 0.22611276 -0.41300952 
1.779e+009 0.22461504 -0.41197612 0.77538496 0.41197612 0.77538496 0.41197612 0.22461504 -0.41197612 
1.78e+009 0.22310205 -0.41092363 0.77689795 0.41092363 0.77689795 0.41092363 0.22310205 -0.41092362 
1.781e+009 0.22157355 -0.40985154 0.77842645 0.40985154 0.77842645 0.40985154 0.22157355 -0.40985154 
1.782e+009 0.22002925 -0.40875933 0.77997075 0.40875933 0.77997075 0.40875933 0.22002925 -0.40875933 
1.783e+009 0.2184689 -0.40764644 0.7815311 0.40764643 0.7815311 0.40764643 0.2184689 -0.40764643 
1.784e+009 0.21689221 -0.40651229 0.78310779 0.40651229 0.78310779 0.40651229 0.21689221 -0.40651229 
1.785e+009 0.2152989 -0.40535631 0.78470109 0.4053563 0.78470109 0.4053563 0.2152989 -0.4053563 
1.786e+009 0.21368869 -0.40417787 0.7863113 0.40417787 0.7863113 0.40417787 0.21368869 -0.40417787 
1.787e+009 0.21206129 -0.40297634 0.7879387 0.40297634 0.7879387 0.40297634 0.21206129 -0.40297634 
1.788e+009 0.2104164 -0.40175107 0.78958359 0.40175107 0.78958359 0.40175107 0.2104164 -0.40175107 
1.789e+009 0.20875373 -0.40050138 0.79124627 0.40050137 0.79124627 0.40050137 0.20875373 -0.40050137 
1.79e+009 0.20707297 -0.39922655 0.79292703 0.39922655 0.79292703 0.39922655 0.20707297 -0.39922655 
1.791e+009 0.2053738 -0.39792586 0.7946262 0.39792586 0.7946262 0.39792586 0.2053738 -0.39792586 
1.792e+009 0.20365592 -0.39659856 0.79634408 0.39659856 0.79634408 0.39659856 0.20365592 -0.39659856 
1.793e+009 0.20191902 -0.39524385 0.79808098 0.39524385 0.79808098 0.39524385 0.20191901 -0.39524385 
1.794e+009 0.20016276 -0.39386092 0.79983724 0.39386092 0.79983724 0.39386092 0.20016275 -0.39386092 
1.795e+009 0.19838682 -0.39244893 0.80161318 0.39244893 0.80161318 0.39244893 0.19838682 -0.39244893 
1.796e+009 0.19659087 -0.39100699 0.80340913 0.39100699 0.80340913 0.39100699 0.19659087 -0.39100699 
1.797e+009 0.19477458 -0.3895342 0.80522541 0.3895342 0.80522541 0.3895342 0.19477458 -0.38953419 
1.798e+009 0.19293761 -0.3880296 0.80706238 0.3880296 0.80706238 0.3880296 0.19293761 -0.3880296 
1.799e+009 0.19107963 -0.38649222 0.80892037 0.38649222 0.80892037 0.38649222 0.19107963 -0.38649222 
1.8e+009 0.18920027 -0.38492104 0.81079972 0.38492104 0.81079972 0.38492104 0.18920027 -0.38492104 
1.801e+009 0.18729921 -0.38331498 0.81270079 0.38331498 0.81270079 0.38331498 0.18729921 -0.38331498 
1.802e+009 0.18537608 -0.38167296 0.81462392 0.38167296 0.81462392 0.38167296 0.18537608 -0.38167296 
1.803e+009 0.18343054 -0.37999382 0.81656945 0.37999381 0.81656945 0.37999381 0.18343054 -0.37999381 
1.804e+009 0.18146224 -0.37827636 0.81853776 0.37827636 0.81853776 0.37827636 0.18146224 -0.37827636 
1.805e+009 0.17947082 -0.37651936 0.82052918 0.37651935 0.82052918 0.37651935 0.17947081 -0.37651935 
1.806e+009 0.17745591 -0.37472151 0.82254408 0.37472151 0.82254408 0.37472151 0.17745591 -0.37472151 
1.807e+009 0.17541718 -0.37288147 0.82458281 0.37288147 0.82458281 0.37288147 0.17541718 -0.37288147 
1.808e+009 0.17335427 -0.37099785 0.82664573 0.37099785 0.82664573 0.37099785 0.17335427 -0.37099784 
1.809e+009 0.17126681 -0.36906918 0.82873318 0.36906918 0.82873318 0.36906918 0.17126681 -0.36906918 
1.81e+009 0.16915448 -0.36709395 0.83084552 0.36709395 0.83084552 0.36709395 0.16915448 -0.36709395 
1.811e+009 0.1670169 -0.36507058 0.8329831 0.36507058 0.8329831 0.36507058 0.1670169 -0.36507058 
1.812e+009 0.16485375 -0.36299742 0.83514625 0.36299742 0.83514625 0.36299742 0.16485375 -0.36299742 
1.813e+009 0.16266468 -0.36087275 0.83733532 0.36087275 0.83733532 0.36087275 0.16266468 -0.36087275 
1.814e+009 0.16044937 -0.35869478 0.83955063 0.35869478 0.83955063 0.35869478 0.16044937 -0.35869478 
1.815e+009 0.15820749 -0.35646164 0.8417925 0.35646164 0.8417925 0.35646164 0.15820749 -0.35646164 
1.816e+009 0.15593874 -0.35417139 0.84406126 0.35417138 0.84406126 0.35417138 0.15593874 -0.35417138 
1.817e+009 0.15364281 -0.35182197 0.84635719 0.35182197 0.84635719 0.35182197 0.15364281 -0.35182197 
1.818e+009 0.15131942 -0.34941129 0.84868058 0.34941129 0.84868058 0.34941129 0.15131942 -0.34941129 
1.819e+009 0.14896829 -0.34693711 0.8510317 0.34693711 0.8510317 0.34693711 0.14896829 -0.34693711 
1.82e+009 0.14658919 -0.34439713 0.85341081 0.34439712 0.85341081 0.34439712 0.14658918 -0.34439712 
1.821e+009 0.14418186 -0.34178891 0.85581813 0.34178891 0.85581813 0.34178891 0.14418186 -0.34178891 
1.822e+009 0.14174613 -0.33910994 0.85825387 0.33910994 0.85825387 0.33910994 0.14174612 -0.33910994 
1.823e+009 0.13928179 -0.33635757 0.86071821 0.33635757 0.86071821 0.33635757 0.13928179 -0.33635757 
1.824e+009 0.13678871 -0.33352904 0.86321128 0.33352904 0.86321128 0.33352904 0.13678871 -0.33352904 
1.825e+009 0.13426678 -0.33062147 0.86573321 0.33062147 0.86573321 0.33062147 0.13426678 -0.33062146 
1.826e+009 0.13171593 -0.32763182 0.86828407 0.32763182 0.86828407 0.32763182 0.13171593 -0.32763182 
1.827e+009 0.12913611 -0.32455695 0.87086388 0.32455695 0.87086388 0.32455695 0.12913611 -0.32455695 
1.828e+009 0.12652737 -0.32139354 0.87347262 0.32139354 0.87347262 0.32139354 0.12652737 -0.32139354 
1.829e+009 0.12388978 -0.31813813 0.87611022 0.31813813 0.87611022 0.31813813 0.12388978 -0.31813813 
1.83e+009 0.12122348 -0.31478711 0.87877652 0.31478711 0.87877652 0.31478711 0.12122348 -0.31478711 
1.831e+009 0.11852867 -0.31133667 0.88147133 0.31133667 0.88147133 0.31133667 0.11852867 -0.31133667 
1.832e+009 0.11580565 -0.30778285 0.88419435 0.30778284 0.88419435 0.30778284 0.11580565 -0.30778284 
1.833e+009 0.1130548 -0.30412147 0.8869452 0.30412147 0.8869452 0.30412147 0.1130548 -0.30412147 
1.834e+009 0.11027658 -0.3003482 0.88972342 0.3003482 0.88972342 0.3003482 0.11027658 -0.3003482 
1.835e+009 0.10747157 -0.29645846 0.89252843 0.29645845 0.89252843 0.29645845 0.10747157 -0.29645845 
1.836e+009 0.10464047 -0.29244745 0.89535953 0.29244745 0.89535953 0.29244745 0.10464047 -0.29244745 
1.837e+009 0.10178411 -0.28831019 0.89821589 0.28831019 0.89821589 0.28831019 0.10178411 -0.28831019 
1.838e+009 0.098903462 -0.2840414 0.90109654 0.28404139 0.90109654 0.28404139 0.098903461 -0.28404139 
1.839e+009 0.095999663 -0.27963558 0.90400033 0.27963558 0.90400033 0.27963558 0.095999662 -0.27963558 
1.84e+009 0.093074033 -0.27508696 0.90692597 0.27508696 0.90692597 0.27508696 0.093074033 -0.27508696 
1.841e+009 0.090128082 -0.27038951 0.90987192 0.27038951 0.90987192 0.27038951 0.090128081 -0.2703895 
1.842e+009 0.087163549 -0.26553687 0.91283645 0.26553687 0.91283645 0.26553687 0.087163548 -0.26553687 
1.843e+009 0.084182412 -0.26052242 0.91581759 0.26052241 0.91581759 0.26052241 0.084182411 -0.26052241 
1.844e+009 0.081186919 -0.25533919 0.91881308 0.25533919 0.91881308 0.25533919 0.081186918 -0.25533919 
1.845e+009 0.078179618 -0.24997991 0.92182038 0.24997991 0.92182038 0.24997991 0.078179618 -0.24997991 
1.846e+009 0.075163381 -0.24443694 0.92483662 0.24443694 0.92483662 0.24443694 0.07516338 -0.24443694 
1.847e+009 0.072141449 -0.23870231 0.92785855 0.23870231 0.92785855 0.23870231 0.072141449 -0.23870231 
1.848e+009 0.069117468 -0.23276766 0.93088253 0.23276766 0.93088253 0.23276766 0.069117468 -0.23276766 
1.849e+009 0.066095518 -0.22662426 0.93390448 0.22662426 0.93390448 0.22662426 0.066095517 -0.22662426 
1.85e+009 0.063080177 -0.22026297 0.93691982 0.22026297 0.93691982 0.22026297 0.063080177 -0.22026297 
1.851e+009 0.06007656 -0.21367427 0.93992344 0.21367427 0.93992344 0.21367427 0.06007656 -0.21367427 
1.852e+009 0.057090385 -0.20684819 0.94290961 0.20684819 0.94290961 0.20684819 0.057090385 -0.20684819 
1.853e+009 0.054128026 -0.19977437 0.94587197 0.19977437 0.94587197 0.19977437 0.054128026 -0.19977437 
1.854e+009 0.051196579 -0.19244201 0.94880342 0.19244201 0.94880342 0.19244201 0.051196579 -0.19244201 
1.855e+009 0.048303946 -0.18483986 0.95169605 0.18483986 0.95169605 0.18483986 0.048303945 -0.18483986 
1.856e+009 0.045458909 -0.17695627 0.95454109 0.17695627 0.95454109 0.17695627 0.045458909 -0.17695626 
1.857e+009 0.04267122 -0.16877913 0.95732878 0.16877913 0.95732878 0.16877913 0.042671219 -0.16877913 
1.858e+009 0.0399517 -0.16029595 0.96004829 0.16029595 0.96004829 0.16029595 0.0399517 -0.16029595 
1.859e+009 0.037312345 -0.15149381 0.96268765 0.15149381 0.96268765 0.15149381 0.037312345 -0.15149381 
1.86e+009 0.034766436 -0.14235944 0.96523356 0.14235944 0.96523356 0.14235944 0.034766436 -0.14235944 
1.861e+009 0.032328673 -0.13287922 0.96767132 0.13287922 0.96767132 0.13287922 0.032328673 -0.13287922 
1.862e+009 0.030015306 -0.12303922 0.96998469 0.12303922 0.96998469 0.12303922 0.030015306 -0.12303922 
1.863e+009 0.027844276 -0.11282531 0.97215572 0.11282531 0.97215572 0.11282531 0.027844276 -0.11282531 
1.864e+009 0.025835384 -0.10222318 0.97416461 0.10222318 0.97416461 0.10222318 0.025835384 -0.10222318 
1.865e+009 0.024010458 -0.091218449 0.97598954 0.091218448 0.97598954 0.091218448 0.024010458 -0.091218447 
1.866e+009 0.022393514 -0.079796792 0.97760648 0.079796792 0.97760648 0.079796792 0.022393514 -0.079796792 
1.867e+009 0.021010977 -0.067944079 0.97898902 0.067944079 0.97898902 0.067944079 0.021010977 -0.067944079 
1.868e+009 0.019891845 -0.055646533 0.98010815 0.055646533 0.98010815 0.055646533 0.019891845 -0.055646533 
1.869e+009 0.019067926 -0.042890947 0.98093207 0.042890946 0.98093207 0.042890946 0.019067926 -0.042890946 
1.87e+009 0.018574029 -0.029664919 0.98142597 0.029664919 0.98142597 0.029664919 0.018574029 -0.029664919 
1.871e+009 0.018448186 -0.015957147 0.98155181 0.015957147 0.98155181 0.015957147 0.018448187 -0.015957147 
1.872e+009 0.018731861 -0.0017577623 0.98126813 0.0017577623 0.98126813 0.0017577623 0.018731861 -0.0017577623 
1.873e+009 0.019470157 0.012941273 0.98052984 -0.012941273 0.98052984 -0.012941273 0.019470157 0.012941273 
1.874e+009 0.020711998 0.028145708 0.97928801 -0.028145708 0.97928801 -0.028145707 0.020711998 0.028145708 
1.875e+009 0.022510285 0.043858478 0.97748972 -0.043858478 0.97748972 -0.043858478 0.022510285 0.043858478 
1.876e+009 0.024922047 0.0600791 0.97507796 -0.0600791 0.97507796 -0.060079099 0.024922047 0.0600791 
1.877e+009 0.028008488 0.07680299 0.97199151 -0.07680299 0.97199151 -0.07680299 0.028008487 0.07680299 
1.878e+009 0.03183502 0.094020697 0.96816498 -0.094020697 0.96816498 -0.094020698 0.03183502 0.094020698 
1.879e+009 0.036471176 0.11171705 0.96352883 -0.11171705 0.96352883 -0.11171705 0.036471176 0.11171705 
1.88e+009 0.041990399 0.12987022 0.9580096 -0.12987022 0.95800961 -0.12987021 0.0419904 0.12987022 
1.881e+009 0.048469759 0.14845068 0.95153025 -0.14845069 0.95153025 -0.14845068 0.048469759 0.14845068 
1.882e+009 0.055989416 0.16742018 0.94401058 -0.16742018 0.94401058 -0.16742018 0.055989418 0.16742018 
1.883e+009 0.06463197 0.18673051 0.93536803 -0.18673051 0.93536803 -0.18673051 0.06463197 0.18673051 
1.884e+009 0.074481496 0.20632241 0.92551851 -0.20632241 0.92551851 -0.20632241 0.074481497 0.20632241 
1.885e+009 0.085622379 0.22612439 0.91437762 -0.22612439 0.91437762 -0.22612439 0.085622379 0.22612439 
1.886e+009 0.098137817 0.24605158 0.90186219 -0.24605158 0.90186219 -0.24605158 0.098137817 0.24605158 
1.887e+009 0.11210801 0.26600482 0.88789199 -0.26600482 0.88789199 -0.26600482 0.11210801 0.26600482 
1.888e+009 0.12760802 0.28586977 0.87239199 -0.28586977 0.87239198 -0.28586978 0.12760802 0.28586978 
1.889e+009 0.14470527 0.30551647 0.85529474 -0.30551647 0.85529475 -0.30551647 0.14470527 0.30551647 
1.89e+009 0.16345671 0.32479911 0.83654329 -0.32479911 0.83654329 -0.32479911 0.16345671 0.32479911 
1.891e+009 0.18390578 0.34355638 0.81609423 -0.34355639 0.81609423 -0.34355639 0.18390578 0.34355639 
1.892e+009 0.20607901 0.36161243 0.793921 -0.36161243 0.79392099 -0.36161244 0.20607901 0.36161244 